# vtk DataFile Version 3.0
LBM Data
ASCII
DATASET STRUCTURED_POINTS
DIMENSIONS 50 50 1
ORIGIN 0 0 0
SPACING 1 1 1
POINT_DATA 2500
SCALARS density double 1
LOOKUP_TABLE default
1.28092e+111
1.93589e+111
1.93589e+111
1.93589e+111
1.93589e+111
1.93589e+111
1.93589e+111
1.93589e+111
1.93589e+111
1.93589e+111
1.93589e+111
1.93589e+111
1.93589e+111
1.93589e+111
1.93589e+111
1.93589e+111
1.93589e+111
1.93589e+111
1.93589e+111
1.93589e+111
1.93589e+111
1.93589e+111
1.93589e+111
1.93589e+111
1.93589e+111
1.93589e+111
1.93589e+111
1.93589e+111
1.93589e+111
1.93589e+111
1.93589e+111
1.93589e+111
1.93589e+111
1.93589e+111
1.93589e+111
1.93589e+111
1.93589e+111
1.93589e+111
1.93589e+111
1.93589e+111
1.93589e+111
1.93589e+111
1.93589e+111
1.93589e+111
1.93589e+111
1.93589e+111
1.93589e+111
1.93589e+111
1.93589e+111
4.02291e+111
1.32488e+111
6.15241e+111
1.30442e+112
1.99359e+112
2.68277e+112
3.37194e+112
4.06111e+112
4.75029e+112
5.43946e+112
6.12864e+112
6.81781e+112
7.50699e+112
8.19616e+112
8.88534e+112
9.57451e+112
1.02637e+113
1.09529e+113
1.1642e+113
1.23312e+113
1.30204e+113
1.37096e+113
1.43987e+113
1.50879e+113
1.57771e+113
1.64663e+113
1.71554e+113
1.78446e+113
1.85338e+113
1.9223e+113
1.99121e+113
2.06013e+113
2.12905e+113
2.19797e+113
2.26688e+113
2.3358e+113
2.40472e+113
2.47364e+113
2.54255e+113
2.61147e+113
2.68039e+113
2.74931e+113
2.81822e+113
2.88714e+113
2.95606e+113
3.02498e+113
3.09389e+113
3.16281e+113
3.23173e+113
3.30065e+113
3.43394e+113
1.32488e+111
1.0869e+112
3.96632e+112
9.29919e+112
1.70855e+113
2.73253e+113
4.00185e+113
5.51652e+113
7.27654e+113
9.2819e+113
1.15326e+114
1.40286e+114
1.677e+114
1.97568e+114
2.29889e+114
2.64663e+114
3.01891e+114
3.41572e+114
3.83707e+114
4.28295e+114
4.75336e+114
5.24831e+114
5.7678e+114
6.31182e+114
6.88037e+114
7.47346e+114
8.09108e+114
8.73324e+114
9.39993e+114
1.00912e+115
1.08069e+115
1.15472e+115
1.2312e+115
1.31014e+115
1.39153e+115
1.47537e+115
1.56167e+115
1.65042e+115
1.74163e+115
1.83528e+115
1.93139e+115
2.02996e+115
2.13097e+115
2.23445e+115
2.34037e+115
2.44875e+115
2.55958e+115
2.67286e+115
2.7886e+115
2.90791e+115
1.32488e+111
1.55855e+112
8.30731e+112
2.77602e+113
6.86516e+113
1.39716e+114
2.49686e+114
4.07299e+114
6.21286e+114
9.00383e+114
1.25332e+115
1.68884e+115
2.21568e+115
2.84255e+115
3.57821e+115
4.43139e+115
5.41081e+115
6.52522e+115
7.78335e+115
9.19393e+115
1.07657e+116
1.25074e+116
1.44277e+116
1.65354e+116
1.88393e+116
2.1348e+116
2.40703e+116
2.70149e+116
3.01906e+116
3.36061e+116
3.72701e+116
4.11914e+116
4.53787e+116
4.98407e+116
5.45862e+116
5.96238e+116
6.49624e+116
7.06107e+116
7.65774e+116
8.28712e+116
8.95009e+116
9.64752e+116
1.03803e+117
1.11493e+117
1.19553e+117
1.27993e+117
1.36821e+117
1.46047e+117
1.55678e+117
1.65725e+117
1.32488e+111
2.03021e+112
1.43274e+113
6.33542e+113
2.03072e+114
5.18534e+114
1.12589e+115
2.17238e+115
3.83635e+115
6.32721e+115
9.88551e+115
1.47828e+116
2.13219e+116
2.98366e+116
4.06917e+116
5.42833e+116
7.10384e+116
9.14152e+116
1.15903e+117
1.45022e+117
1.79324e+117
2.19392e+117
2.65838e+117
3.19308e+117
3.80478e+117
4.50054e+117
5.28775e+117
6.1741e+117
7.16758e+117
8.27652e+117
9.50953e+117
1.08756e+118
1.23838e+118
1.40439e+118
1.58657e+118
1.78593e+118
2.00353e+118
2.24045e+118
2.49779e+118
2.7767e+118
3.07835e+118
3.40394e+118
3.75472e+118
4.13195e+118
4.53692e+118
4.97097e+118
5.43545e+118
5.93176e+118
6.46131e+118
7.02557e+118
1.32488e+111
2.50187e+112
2.20266e+113
1.22059e+114
4.87316e+114
1.52571e+115
3.97904e+115
9.03369e+115
1.84313e+116
3.45795e+116
6.06626e+116
1.00752e+117
1.59918e+117
2.44338e+117
3.61411e+117
5.19865e+117
7.29868e+117
1.00314e+118
1.35306e+118
1.7948e+118
2.34538e+118
3.02384e+118
3.85131e+118
4.85116e+118
6.04906e+118
7.47314e+118
9.15405e+118
1.11251e+119
1.34224e+119
1.6085e+119
1.91547e+119
2.26767e+119
2.66992e+119
3.12738e+119
3.64556e+119
4.23032e+119
4.88787e+119
5.62481e+119
6.44814e+119
7.36524e+119
8.38391e+119
9.51235e+119
1.07592e+120
1.21336e+120
1.36451e+120
1.53036e+120
1.71197e+120
1.91044e+120
2.1269e+120
2.36257e+120
1.32488e+111
2.97352e+112
3.14048e+113
2.09851e+114
1.00964e+115
3.78287e+115
1.16677e+116
3.08877e+116
7.24451e+116
1.54208e+117
3.03394e+117
5.59442e+117
9.77284e+117
1.63101e+118
2.61792e+118
4.063e+118
6.12371e+118
8.9953e+118
1.29164e+119
1.8175e+119
2.5115e+119
3.4143e+119
4.57353e+119
6.04458e+119
7.89137e+119
1.01872e+120
1.30158e+120
1.64717e+120
2.06619e+120
2.57066e+120
3.17398e+120
3.8911e+120
4.73861e+120
5.73485e+120
6.90001e+120
8.2563e+120
9.82804e+120
1.16418e+121
1.37266e+121
1.61138e+121
1.88377e+121
2.19352e+121
2.54463e+121
2.9414e+121
3.38847e+121
3.89082e+121
4.45378e+121
5.08309e+121
5.78485e+121
6.56559e+121
1.32488e+111
3.44518e+112
4.24622e+113
3.32709e+114
1.87956e+115
8.24709e+115
2.95989e+116
9.03557e+116
2.41873e+117
5.8154e+117
1.27971e+118
2.61583e+118
5.02528e+118
9.15812e+118
1.59514e+119
2.67163e+119
4.32412e+119
6.79131e+119
1.03857e+120
1.55098e+120
2.26741e+120
3.25178e+120
4.58319e+120
6.35847e+120
8.69501e+120
1.17339e+121
1.56434e+121
2.06226e+121
2.69055e+121
3.47656e+121
4.45204e+121
5.65369e+121
7.12366e+121
8.91023e+121
1.10683e+122
1.36604e+122
1.67568e+122
2.04369e+122
2.47899e+122
2.99152e+122
3.59241e+122
4.294e+122
5.11001e+122
6.05557e+122
7.14741e+122
8.40393e+122
9.84535e+122
1.14938e+123
1.33736e+123
1.5511e+123
1.32488e+111
3.91684e+112
5.51986e+113
4.96611e+114
3.2279e+115
1.62866e+116
6.69979e+116
2.33126e+117
7.06309e+117
1.90704e+118
4.67548e+118
1.05673e+119
2.22891e+119
4.43119e+119
8.37079e+119
1.5126e+120
2.62894e+120
4.41504e+120
7.19218e+120
1.14019e+121
1.76398e+121
2.66961e+121
3.96038e+121
5.76952e+121
8.26678e+121
1.16661e+122
1.62343e+122
2.23012e+122
3.02711e+122
4.06355e+122
5.39875e+122
7.10383e+122
9.26353e+122
1.19782e+123
1.5366e+123
1.95656e+123
2.47383e+123
3.10717e+123
3.87825e+123
4.81202e+123
5.93708e+123
7.28614e+123
8.8964e+123
1.08101e+124
1.30751e+124
1.57452e+124
1.88811e+124
2.25509e+124
2.68307e+124
3.18054e+124
1.32488e+111
4.38849e+112
6.96142e+113
7.07533e+114
5.20675e+115
2.97568e+116
1.38448e+117
5.43089e+117
1.8462e+118
5.56138e+118
1.51189e+119
3.76553e+119
8.69967e+119
1.88368e+120
3.85514e+120
7.51065e+120
1.40118e+121
2.51569e+121
4.36515e+121
7.34653e+121
1.20294e+122
1.92147e+122
3.00093e+122
4.59173e+122
6.8954e+122
1.01783e+123
1.47882e+123
2.11743e+123
2.99105e+123
4.17234e+123
5.75248e+123
7.84493e+123
1.05899e+124
1.41591e+124
1.87621e+124
2.46524e+124
3.2135e+124
4.15751e+124
5.34076e+124
6.81479e+124
8.64037e+124
1.08889e+125
1.36437e+125
1.70022e+125
2.10771e+125
2.59988e+125
3.19177e+125
3.90063e+125
4.74624e+125
5.75115e+125
1.32488e+111
4.86015e+112
8.57088e+113
9.71453e+114
7.98948e+115
5.10755e+116
2.65701e+117
1.16321e+118
4.39971e+118
1.46873e+119
4.40432e+119
1.20403e+120
3.03796e+120
7.14875e+120
1.58261e+121
3.32059e+121
6.64448e+121
1.27472e+122
2.35525e+122
4.20737e+122
7.29101e+122
1.2292e+123
2.02119e+123
3.24859e+123
5.11361e+123
7.89665e+123
1.19811e+124
1.78843e+124
2.62959e+124
3.81253e+124
5.45589e+124
7.71301e+124
1.07803e+125
1.49072e+125
2.04081e+125
2.76764e+125
3.72009e+125
4.95849e+125
6.55688e+125
8.60559e+125
1.12142e+126
1.4515e+126
1.86669e+126
2.38599e+126
3.03202e+126
3.83158e+126
4.81632e+126
6.02347e+126
7.49665e+126
9.28679e+126
1.32488e+111
5.3318e+112
1.03483e+114
1.29435e+115
1.17707e+116
8.32992e+116
4.79752e+117
2.32316e+118
9.70068e+118
3.56512e+119
1.17294e+120
3.50446e+120
9.62472e+120
2.45506e+121
5.86774e+121
1.32398e+122
2.83849e+122
5.81419e+122
1.14327e+123
2.16695e+123
3.97313e+123
7.06881e+123
1.22367e+124
2.06595e+124
3.40895e+124
5.50769e+124
8.72733e+124
1.35829e+125
2.07909e+125
3.13351e+125
4.6551e+125
6.8231e+125
9.87565e+125
1.41261e+126
1.99831e+126
2.79752e+126
3.87805e+126
5.32623e+126
7.25129e+126
9.7904e+126
1.31148e+127
1.74372e+127
2.30197e+127
3.01844e+127
3.93245e+127
5.0918e+127
6.55431e+127
8.38963e+127
1.06813e+128
1.35291e+128
1.32488e+111
5.80346e+112
1.22935e+114
1.6822e+115
1.67664e+116
1.30198e+117
8.23195e+117
4.37451e+118
2.00224e+119
8.05073e+119
2.89068e+120
9.39784e+120
2.79939e+121
7.71837e+121
1.9871e+122
4.81322e+122
1.10411e+123
2.41218e+123
5.04387e+123
1.01376e+124
1.9658e+124
3.6898e+124
6.72308e+124
1.19216e+125
2.06194e+125
3.48539e+125
5.76809e+125
9.36056e+125
1.49169e+126
2.33728e+126
3.60496e+126
5.47897e+126
8.21324e+126
1.2154e+127
1.77686e+127
2.56818e+127
3.67214e+127
5.19754e+127
7.28618e+127
1.01215e+128
1.39393e+128
1.90404e+128
2.58063e+128
3.47177e+128
4.63773e+128
6.15362e+128
8.11254e+128
1.06294e+129
1.38453e+129
1.79326e+129
1.32488e+111
6.27512e+112
1.44067e+114
2.14098e+115
2.32138e+116
1.96334e+117
1.35284e+118
7.83472e+118
3.90558e+119
1.7082e+120
6.65985e+120
2.34578e+121
7.55101e+121
2.24358e+122
6.20657e+122
1.61067e+123
3.94696e+123
9.18563e+123
2.04046e+124
4.34544e+124
8.90645e+124
1.76287e+125
3.37976e+125
6.29302e+125
1.14069e+126
2.01708e+126
3.48615e+126
5.89882e+126
9.7868e+126
1.59428e+127
2.55311e+127
4.02388e+127
6.24781e+127
9.56579e+127
1.44541e+128
2.1571e+128
3.18176e+128
4.64158e+128
6.70076e+128
9.57816e+128
1.35632e+129
1.90357e+129
2.64907e+129
3.65688e+129
5.00942e+129
6.81204e+129
9.19861e+129
1.23383e+130
1.6444e+130
2.17816e+130
1.32488e+111
6.74677e+112
1.66878e+114
2.67667e+115
3.13714e+116
2.87133e+117
2.14258e+118
1.34405e+119
7.25531e+119
3.43356e+120
1.44664e+121
5.49733e+121
1.90535e+122
6.08198e+122
1.80321e+123
5.00276e+123
1.3073e+124
3.23628e+124
7.62825e+124
1.71973e+125
3.7228e+125
7.76571e+125
1.56584e+126
3.06035e+126
5.81205e+126
1.07493e+127
1.93991e+127
3.42224e+127
5.91101e+127
1.00107e+128
1.66451e+128
2.7205e+128
4.37538e+128
6.93139e+128
1.08256e+129
1.66829e+129
2.53868e+129
3.81737e+129
5.67568e+129
8.34888e+129
1.21572e+130
1.75329e+130
2.50551e+130
3.54936e+130
4.98645e+130
6.95006e+130
9.6138e+130
1.32025e+131
1.80055e+131
2.43933e+131
1.32488e+111
7.21843e+112
1.91368e+114
3.29524e+115
4.15188e+116
4.08962e+117
3.2866e+118
2.22121e+119
1.29173e+120
6.58264e+120
2.98389e+121
1.21846e+122
4.53112e+122
1.54908e+123
4.90926e+123
1.45282e+124
4.04082e+124
1.06238e+125
2.65369e+125
6.32623e+125
1.44515e+126
3.17475e+126
6.7286e+126
1.37975e+127
2.7444e+127
5.3072e+127
9.99891e+127
1.83873e+128
3.30592e+128
5.8202e+128
1.00474e+129
1.70291e+129
2.83689e+129
4.65012e+129
7.50711e+129
1.19467e+130
1.87562e+130
2.90726e+130
4.45207e+130
6.73992e+130
1.00929e+131
1.49585e+131
2.19524e+131
3.19158e+131
4.59886e+131
6.57039e+131
9.31097e+131
1.30923e+132
1.82727e+132
2.53214e+132
1.32488e+111
7.69009e+112
2.17537e+114
4.00268e+115
5.39573e+116
5.69206e+117
4.90274e+118
3.55285e+119
2.21564e+120
1.21051e+121
5.87954e+121
2.57028e+122
1.02206e+123
3.7311e+123
1.2606e+124
3.97018e+124
1.17302e+125
3.26984e+125
8.6432e+125
2.17628e+126
5.24094e+126
1.21153e+127
2.69712e+127
5.79938e+127
1.20759e+128
2.44087e+128
4.7994e+128
9.19784e+128
1.72109e+129
3.14942e+129
5.64413e+129
9.91916e+129
1.71155e+130
2.9028e+130
4.84393e+130
7.96042e+130
1.28944e+131
2.06032e+131
3.24978e+131
5.0635e+131
7.79821e+131
1.18778e+132
1.79024e+132
2.67138e+132
3.9483e+132
5.78264e+132
8.39575e+132
1.20886e+133
1.72675e+133
2.44774e+133
1.32488e+111
8.16174e+112
2.45386e+114
4.80496e+115
6.9009e+116
7.76345e+117
7.13625e+118
5.52157e+119
3.67732e+120
2.14544e+121
1.11239e+122
5.18783e+122
2.19884e+123
8.54641e+123
3.07039e+124
1.02677e+125
3.21615e+125
9.48891e+125
2.65029e+126
7.03922e+126
1.78514e+127
4.33834e+127
1.01369e+128
2.28409e+128
4.97631e+128
1.05086e+129
2.15566e+129
4.30408e+129
8.37981e+129
1.59352e+130
2.96418e+130
5.40098e+130
9.65182e+130
1.69362e+131
2.92112e+131
4.9572e+131
8.2845e+131
1.36458e+132
2.21699e+132
3.55528e+132
5.63135e+132
8.81547e+132
1.36464e+133
2.09008e+133
3.16878e+133
4.7578e+133
7.07772e+133
1.04359e+134
1.52573e+134
2.21255e+134
1.32488e+111
8.6334e+112
2.74913e+114
5.70805e+115
8.70177e+116
1.04003e+118
1.01637e+119
8.36481e+119
5.92732e+120
3.67956e+121
2.02957e+122
1.00651e+123
4.53342e+123
1.87088e+124
7.12914e+124
2.5257e+125
8.37036e+125
2.60926e+126
7.68869e+126
2.15126e+127
5.73843e+127
1.46467e+128
3.58897e+128
8.46811e+128
1.92917e+129
4.25396e+129
9.0998e+129
1.89223e+130
3.83205e+130
7.57079e+130
1.46144e+131
2.76036e+131
5.10818e+131
9.27265e+131
1.65294e+132
2.89646e+132
4.99395e+132
8.47935e+132
1.41896e+133
2.34204e+133
3.81532e+133
6.13849e+133
9.75988e+133
1.53434e+134
2.38628e+134
3.67326e+134
5.59902e+134
8.4545e+134
1.26518e+135
1.87702e+135
1.32488e+111
9.10506e+112
3.06119e+114
6.71794e+115
1.08348e+117
1.37114e+118
1.41973e+119
1.23864e+120
9.30734e+120
6.12768e+121
3.5843e+122
1.88451e+123
8.99458e+123
3.93089e+124
1.58495e+125
5.9357e+125
2.07718e+126
6.82924e+126
2.11976e+127
6.23931e+127
1.74849e+128
4.68219e+128
1.20207e+129
2.96765e+129
7.06464e+129
1.62572e+130
3.62471e+130
7.84648e+130
1.65226e+131
3.39034e+131
6.78989e+131
1.32915e+132
2.54662e+132
4.78157e+132
8.8083e+132
1.59363e+133
2.83451e+133
4.96089e+133
8.55055e+133
1.45251e+134
2.4336e+134
4.02417e+134
6.5716e+134
1.06045e+135
1.69186e+135
2.67007e+135
4.17032e+135
6.44912e+135
9.87863e+135
1.49945e+136
1.32488e+111
9.57671e+112
3.39005e+114
7.84061e+115
1.33387e+117
1.78189e+118
1.94893e+119
1.79698e+120
1.42752e+121
9.93787e+121
6.14677e+122
3.41676e+123
1.72357e+124
7.95705e+124
3.38695e+125
1.33801e+126
4.93472e+126
1.70815e+127
5.57619e+127
1.72421e+128
5.06995e+128
1.42283e+129
3.82353e+129
9.86847e+129
2.45303e+130
5.88729e+130
1.36738e+131
3.07995e+131
6.7409e+131
1.4361e+132
2.98301e+132
6.05037e+132
1.19996e+133
2.33005e+133
4.43495e+133
8.28349e+133
1.51977e+134
2.74149e+134
4.86652e+134
8.50796e+134
1.466e+135
2.49141e+135
4.17876e+135
6.92152e+135
1.13281e+136
1.83293e+136
2.9335e+136
4.64601e+136
7.28484e+136
1.13132e+137
1.32488e+111
1.00484e+113
3.7357e+114
9.08203e+115
1.6254e+117
2.2859e+118
2.63368e+119
2.55928e+120
2.14348e+121
1.57358e+122
1.02644e+123
6.01677e+123
3.19993e+124
1.55693e+125
6.98088e+125
2.90315e+126
1.12632e+127
4.09775e+127
1.40468e+128
4.55638e+128
1.40403e+129
4.12475e+129
1.15907e+130
3.12474e+130
8.10408e+130
2.02711e+131
4.90163e+131
1.14821e+132
2.61076e+132
5.77252e+132
1.24319e+133
2.61188e+133
5.36072e+133
1.07626e+134
2.11625e+134
4.07994e+134
7.72027e+134
1.43523e+135
2.6237e+135
4.72032e+135
8.36435e+135
1.46087e+136
2.51654e+136
4.27845e+136
7.18316e+136
1.19161e+137
1.95419e+137
3.16976e+137
5.08761e+137
8.08384e+137
1.32488e+111
1.052e+113
4.09813e+114
1.04482e+116
1.96239e+117
2.89824e+118
3.50869e+119
3.58436e+120
3.15708e+121
2.43801e+122
1.67308e+123
1.03175e+124
5.77196e+124
2.9533e+125
1.39199e+126
6.08224e+126
2.47774e+127
9.45884e+127
3.39958e+128
1.15519e+129
3.72565e+129
1.14447e+130
3.35947e+130
9.45141e+130
2.55548e+131
6.65722e+131
1.67482e+132
4.07784e+132
9.62799e+132
2.2084e+133
4.92935e+133
1.07238e+134
2.27709e+134
4.72569e+134
9.59716e+134
1.90947e+135
3.72595e+135
7.13756e+135
1.34354e+136
2.48724e+136
4.53207e+136
8.1342e+136
1.43905e+137
2.51113e+137
4.32472e+137
7.35521e+137
1.23599e+138
2.05323e+138
3.37345e+138
5.48425e+138
1.32488e+111
1.09917e+113
4.47736e+114
1.1945e+116
2.34931e+117
3.63554e+118
4.61419e+119
4.944e+120
4.56908e+121
3.70313e+122
2.66752e+123
1.72681e+124
1.014e+125
5.44492e+125
2.69252e+126
1.23382e+127
5.26861e+127
2.10704e+128
7.92807e+128
2.81829e+129
9.5012e+129
3.04835e+130
9.33764e+130
2.73893e+131
7.71395e+131
2.09131e+132
5.47037e+132
1.38357e+133
3.39029e+133
8.06345e+133
1.86463e+134
4.19891e+134
9.22128e+134
1.97763e+135
4.14711e+135
8.51344e+135
1.71276e+136
3.38035e+136
6.5511e+136
1.24778e+137
2.33772e+137
4.31134e+137
7.83274e+137
1.40278e+138
2.4781e+138
4.32075e+138
7.43966e+138
1.2657e+139
2.12867e+139
3.54069e+139
1.32488e+111
1.14633e+113
4.87338e+114
1.35786e+116
2.79088e+117
4.51605e+118
5.99649e+119
6.72488e+120
6.50722e+121
5.52353e+122
4.16787e+123
2.82648e+124
1.73871e+125
9.77947e+125
5.06436e+126
2.42954e+127
1.08567e+128
4.54147e+128
1.78635e+129
6.63422e+129
2.33502e+130
7.81566e+130
2.4957e+131
7.62505e+131
2.23506e+132
6.30114e+132
1.71252e+133
4.49651e+133
1.14287e+134
2.81713e+134
6.74599e+134
1.57183e+135
3.56888e+135
7.90714e+135
1.71169e+136
3.62469e+136
7.51688e+136
1.52819e+137
3.04866e+137
5.97352e+137
1.15055e+138
2.18014e+138
4.06711e+138
7.47506e+138
1.35443e+139
2.42089e+139
4.27096e+139
7.44121e+139
1.28101e+140
2.18001e+140
1.32488e+111
1.1935e+113
5.28619e+114
1.53548e+116
3.29204e+117
5.55971e+118
7.70856e+119
9.03083e+120
9.13186e+121
8.10255e+122
6.39214e+123
4.53266e+124
2.91555e+125
1.71461e+126
9.2825e+126
4.65426e+127
2.17306e+128
9.49383e+128
3.89835e+129
1.51056e+130
5.54393e+130
1.93372e+131
6.43022e+131
2.04442e+132
6.23149e+132
1.82543e+133
5.15104e+133
1.40316e+134
3.69713e+134
9.43999e+134
2.33978e+135
5.63857e+135
1.32313e+136
3.02747e+136
6.76338e+136
1.477e+137
3.1566e+137
6.6091e+137
1.35699e+138
2.7348e+138
5.41456e+138
1.05401e+139
2.01883e+139
3.80751e+139
7.07555e+139
1.29638e+140
2.34322e+140
4.1807e+140
7.36664e+140
1.2826e+141
1.32488e+111
1.24066e+113
5.71579e+114
1.72796e+116
3.85792e+117
6.78826e+118
9.81067e+119
1.19853e+121
1.26423e+122
1.17045e+123
9.63683e+123
7.13272e+124
4.78918e+125
2.93991e+126
1.66118e+127
8.69175e+127
4.23372e+128
1.92905e+129
8.25781e+129
3.33431e+130
1.27453e+131
4.62748e+131
1.6008e+132
5.29135e+132
1.67565e+133
5.09634e+133
1.49205e+134
4.21386e+134
1.15031e+135
3.04077e+135
7.79717e+135
1.94255e+136
4.70915e+136
1.11238e+137
2.56375e+137
5.77216e+137
1.27099e+138
2.73998e+138
5.78889e+138
1.19976e+139
2.44132e+139
4.88145e+139
9.59853e+139
1.85742e+140
3.5397e+140
6.6474e+140
1.23093e+141
2.24886e+141
4.05578e+141
7.22423e+141
1.32488e+111
1.28783e+113
6.16218e+114
1.9359e+116
4.49386e+117
8.22527e+118
1.2371e+120
1.57339e+121
1.72839e+122
1.66693e+123
1.43001e+124
1.10297e+125
7.71812e+125
4.93774e+126
2.90756e+127
1.58519e+128
8.04398e+128
3.81728e+129
1.70134e+130
7.14965e+130
2.84307e+131
1.07333e+132
3.85876e+132
1.32481e+133
4.35505e+133
1.3741e+134
4.17081e+134
1.22043e+135
3.44948e+135
9.43501e+135
2.50165e+136
6.44027e+136
1.61223e+137
3.93015e+137
9.34158e+137
2.16769e+138
4.91634e+138
1.091e+139
2.37132e+139
5.05303e+139
1.05657e+140
2.16969e+140
4.37919e+140
8.69382e+140
1.69885e+141
3.26975e+141
6.2024e+141
1.16024e+142
2.14153e+142
3.90222e+142
1.32488e+111
1.335e+113
6.62536e+114
2.15991e+116
5.20544e+117
9.89624e+118
1.54663e+120
2.04475e+121
2.33565e+122
2.34296e+123
2.09104e+124
1.67816e+125
1.22199e+126
8.13556e+126
4.98518e+127
2.82804e+128
1.49301e+129
7.36953e+129
3.41552e+130
1.49206e+131
6.16543e+131
2.4177e+132
9.02417e+132
3.21507e+133
1.09616e+134
3.58515e+134
1.12736e+135
3.41551e+135
9.98927e+135
2.82549e+136
7.74249e+136
2.05869e+137
5.31963e+137
1.33771e+138
3.27798e+138
7.8371e+138
1.83027e+139
4.17985e+139
9.34413e+139
2.04677e+140
4.39691e+140
9.27141e+140
1.9205e+141
3.91094e+141
7.8354e+141
1.54542e+142
3.00271e+142
5.75076e+142
1.08625e+143
2.0247e+143
1.32488e+111
1.38216e+113
7.10534e+114
2.40057e+116
5.99843e+117
1.18287e+119
1.91826e+120
2.63251e+121
3.12235e+122
3.25312e+123
3.01615e+124
2.51508e+125
1.9031e+126
1.31669e+127
8.38456e+127
4.94269e+128
2.71125e+129
1.39029e+130
6.69239e+130
3.03566e+131
1.30207e+132
5.29811e+132
2.05116e+133
7.5764e+133
2.67686e+134
9.06817e+134
2.95197e+135
9.25353e+135
2.79865e+136
8.18138e+136
2.31571e+137
6.35647e+137
1.69463e+138
4.39416e+138
1.10966e+139
2.73253e+139
6.56909e+139
1.54344e+140
3.54789e+140
7.98674e+140
1.76234e+141
3.81508e+141
8.10904e+141
1.69364e+142
3.47838e+142
7.02965e+142
1.39886e+143
2.74262e+143
5.30106e+143
1.01065e+144
1.32488e+111
1.42933e+113
7.6021e+114
2.65849e+116
6.87882e+117
1.40521e+119
2.36159e+120
3.35974e+121
4.13224e+122
4.46566e+123
4.2955e+124
3.71676e+125
2.91863e+126
2.09575e+127
1.3851e+128
8.47423e+128
4.824e+129
2.56676e+130
1.28183e+131
6.03073e+131
2.68227e+132
1.13137e+133
4.53883e+133
1.73662e+134
6.35302e+134
2.22739e+135
7.5008e+135
2.43113e+136
7.59867e+136
2.29445e+137
6.70458e+137
1.89892e+138
5.2208e+138
1.39532e+139
3.62988e+139
9.20314e+139
2.27675e+140
5.50187e+140
1.30009e+141
3.00702e+141
6.81395e+141
1.51406e+142
3.30162e+142
7.07116e+142
1.48852e+143
3.08195e+143
6.28039e+143
1.26041e+144
2.49262e+144
4.86034e+144
1.32488e+111
1.47649e+113
8.11566e+114
2.93426e+116
7.85282e+117
1.65984e+119
2.88731e+120
4.25303e+121
5.41763e+122
6.06527e+123
6.04523e+124
5.42092e+125
4.41221e+126
3.28414e+127
2.25002e+128
1.42701e+129
8.4204e+129
4.64374e+130
2.40329e+131
1.17155e+132
5.39768e+132
2.35779e+133
9.79291e+133
3.87784e+134
1.46766e+135
5.32141e+135
1.85243e+136
6.20376e+136
2.00261e+137
6.24231e+137
1.88207e+138
5.49735e+138
1.55794e+139
4.28977e+139
1.14917e+140
2.99872e+140
7.63146e+140
1.89618e+141
4.60474e+141
1.094e+142
2.54519e+142
5.80361e+142
1.29812e+143
2.85045e+143
6.14918e+143
1.30417e+144
2.72119e+144
5.58936e+144
1.13086e+145
2.255e+145
1.32488e+111
1.52366e+113
8.646e+114
3.22848e+116
8.92683e+117
1.95014e+119
3.50724e+120
5.3429e+121
7.04069e+122
8.15625e+123
8.41356e+124
7.80985e+125
6.58094e+126
5.07175e+127
3.59793e+128
2.36281e+129
1.44363e+130
8.24298e+130
4.41638e+131
2.22842e+132
1.06253e+133
4.80212e+133
2.06309e+134
8.44791e+134
3.30517e+135
1.23838e+136
4.45308e+136
1.5399e+137
5.13067e+137
1.64996e+138
5.13005e+138
1.54455e+139
4.5098e+139
1.27879e+140
3.52613e+140
9.4667e+140
2.47749e+141
6.32731e+141
1.57862e+142
3.85143e+142
9.19724e+142
2.15165e+143
4.93548e+143
1.11091e+144
2.45554e+144
5.33389e+144
1.13937e+145
2.39493e+145
4.95666e+145
1.01067e+146
1.32488e+111
1.57082e+113
9.19314e+114
3.54174e+116
1.01075e+118
2.27974e+119
4.23444e+120
6.66419e+121
9.07489e+122
1.08661e+124
1.15882e+125
1.11225e+126
9.69251e+126
7.72571e+127
5.66887e+128
3.85076e+129
2.43358e+130
1.43722e+131
7.96379e+131
4.15539e+132
2.04854e+133
9.5707e+133
4.2495e+134
1.79789e+135
7.26571e+135
2.81107e+136
1.04344e+137
3.72332e+137
1.27961e+138
4.24302e+138
1.3597e+139
4.21753e+139
1.26813e+140
3.70142e+140
1.05012e+141
2.89948e+141
7.80042e+141
2.04701e+142
5.24541e+142
1.31381e+143
3.21949e+143
7.72562e+143
1.81693e+144
4.19132e+144
9.49077e+144
2.11108e+145
4.61592e+145
9.92763e+145
2.10153e+146
4.38109e+146
1.32488e+111
1.61799e+113
9.75707e+114
3.87466e+116
1.14016e+118
2.65251e+119
5.0833e+120
8.25653e+121
1.16066e+123
1.435e+124
1.58049e+125
1.56696e+126
1.41068e+127
1.16177e+128
8.8084e+128
6.18282e+129
4.03765e+130
2.46398e+131
1.41071e+132
7.60482e+132
3.87279e+133
1.86877e+134
8.56836e+134
3.74259e+135
1.56109e+136
6.23217e+136
2.38628e+137
8.78079e+137
3.11086e+138
1.06297e+139
3.50887e+139
1.12072e+140
3.46854e+140
1.04164e+141
3.03932e+141
8.6271e+141
2.38501e+142
6.42892e+142
1.69146e+143
4.34809e+143
1.09309e+144
2.68984e+144
6.48452e+144
1.53271e+145
3.55476e+145
8.09547e+145
1.81157e+146
3.98601e+146
8.62899e+146
1.839e+147
1.32488e+111
1.66516e+113
1.03378e+115
4.22782e+116
1.28163e+118
3.07255e+119
6.0696e+120
1.01648e+122
1.47367e+123
1.87949e+124
2.13579e+125
2.18514e+126
2.03033e+127
1.72593e+128
1.35084e+129
9.7886e+129
6.59931e+130
4.15755e+131
2.45724e+132
1.36734e+133
7.18696e+133
3.5789e+134
1.69313e+135
7.62921e+135
3.28211e+136
1.35106e+137
5.33277e+137
2.02224e+138
7.38097e+138
2.59744e+139
8.82748e+139
2.90173e+140
9.2393e+140
2.85351e+141
8.5594e+141
2.49671e+142
7.09025e+142
1.96248e+143
5.29973e+143
1.39779e+144
3.60399e+144
9.09213e+144
2.24626e+145
5.439e+145
1.29175e+146
3.01131e+146
6.89531e+146
1.55189e+147
3.4352e+147
7.48321e+147
1.32488e+111
1.71232e+113
1.09353e+115
4.60181e+116
1.43588e+118
3.54423e+119
7.21059e+120
1.24397e+122
1.85828e+123
2.44258e+124
2.8612e+125
3.01802e+126
2.89153e+127
2.53485e+128
2.04616e+129
1.52929e+130
1.06345e+131
6.91041e+131
4.2126e+132
2.41765e+133
1.3105e+134
6.72925e+134
3.28225e+135
1.52458e+136
6.75976e+136
2.86725e+137
1.16587e+138
4.5533e+138
1.71112e+139
6.19807e+139
2.1675e+140
7.32905e+140
2.39967e+141
7.61843e+141
2.34828e+142
7.03618e+142
2.0518e+143
5.82937e+143
1.6153e+144
4.36982e+144
1.15521e+145
2.98704e+145
7.56088e+145
1.87503e+146
4.55915e+146
1.08773e+147
2.54815e+147
5.86524e+147
1.32733e+148
2.95505e+148
1.32488e+111
1.75949e+113
1.15496e+115
4.99725e+116
1.60366e+118
4.07218e+119
8.52512e+120
1.51381e+122
2.32812e+123
3.15111e+124
3.8016e+125
4.13064e+126
4.0772e+127
3.68279e+128
3.06336e+129
2.35944e+130
1.69089e+131
1.13237e+132
7.11403e+132
4.20748e+133
2.35016e+134
1.24343e+135
6.24835e+135
2.98967e+136
1.36523e+137
5.96298e+137
2.49618e+138
1.00341e+139
3.88016e+139
1.44587e+140
5.20006e+140
1.80779e+141
6.08369e+141
1.98452e+142
6.28311e+142
1.93308e+143
5.78613e+143
1.68681e+144
4.79442e+144
1.32994e+145
3.60382e+145
9.5482e+145
2.47559e+146
6.28619e+146
1.56454e+147
3.81941e+147
9.15214e+147
2.15406e+148
4.98288e+148
1.13359e+149
1.32488e+111
1.80665e+113
1.21807e+115
5.41473e+116
1.78574e+118
4.66129e+119
1.00337e+121
1.83239e+122
2.89889e+123
4.03699e+124
5.01198e+125
5.60504e+126
5.69514e+127
5.29607e+128
4.53576e+129
3.59723e+130
2.65462e+131
1.8307e+132
1.18436e+133
7.21302e+133
4.14857e+134
2.25992e+135
1.16914e+136
5.75838e+136
2.70642e+137
1.21644e+138
5.23913e+138
2.16634e+139
8.61522e+139
3.30071e+140
1.22022e+141
4.35921e+141
1.50708e+142
5.04902e+142
1.64125e+143
5.1828e+143
1.59176e+144
4.75981e+144
1.38724e+145
3.94455e+145
1.0953e+146
2.97269e+146
7.8926e+146
2.05163e+147
5.22542e+147
1.305e+148
3.19798e+148
7.69498e+148
1.81922e+149
4.22842e+149
1.32488e+111
1.85382e+113
1.28286e+115
5.85484e+116
1.9829e+118
5.31673e+119
1.17587e+121
2.20684e+122
3.58866e+123
5.13797e+124
6.55924e+125
7.54403e+126
7.88443e+127
7.54246e+128
6.64579e+129
5.42296e+130
4.11781e+131
2.92206e+132
1.94522e+133
1.21902e+134
7.21411e+134
4.04336e+135
2.15202e+136
1.09034e+137
5.2709e+137
2.43637e+138
1.07896e+139
4.58651e+139
1.87475e+140
7.38094e+140
2.80329e+141
1.02862e+142
3.65166e+142
1.25588e+143
4.18967e+143
1.3574e+144
4.27595e+144
1.31106e+145
3.91681e+145
1.14127e+146
3.24637e+146
9.02301e+146
2.45257e+147
6.52469e+147
1.70022e+148
4.34293e+148
1.08817e+149
2.67634e+149
6.46547e+149
1.53511e+150
1.32488e+111
1.90098e+113
1.34932e+115
6.31818e+116
2.19597e+118
6.04395e+119
1.37242e+121
2.6451e+122
4.41812e+123
6.49847e+124
8.5244e+125
1.00756e+127
1.08233e+128
1.06432e+129
9.64097e+129
8.08837e+130
6.31491e+131
4.6077e+132
3.15403e+133
2.03239e+134
1.23672e+135
7.12688e+135
3.8998e+136
2.03123e+137
1.00934e+138
4.79505e+138
2.18217e+139
9.53079e+139
4.00197e+140
1.61823e+141
6.31102e+141
2.37736e+142
8.66228e+142
3.05693e+143
1.04616e+144
3.47612e+144
1.1227e+145
3.5284e+145
1.08015e+146
3.22412e+146
9.39211e+146
2.67258e+147
7.43502e+147
2.02382e+148
5.39436e+148
1.40898e+149
3.60894e+149
9.07098e+149
2.23879e+150
5.42904e+150
1.32488e+111
1.94815e+113
1.41747e+115
6.80535e+116
2.42576e+118
6.84869e+119
1.59563e+121
3.156e+122
5.41086e+123
8.17059e+124
1.10051e+126
1.33584e+127
1.47384e+128
1.48878e+129
1.38544e+130
1.19419e+131
9.57971e+131
7.18228e+132
5.05183e+133
3.34501e+134
2.09151e+135
1.23844e+136
6.96271e+136
3.72585e+137
1.90192e+138
9.28086e+138
4.33778e+139
1.94549e+140
8.38733e+140
3.48146e+141
1.39351e+142
5.38649e+142
2.01348e+143
7.28794e+143
2.55752e+144
8.7118e+144
2.88376e+145
9.28626e+145
2.91204e+146
8.90134e+146
2.65472e+147
7.73166e+147
2.20084e+148
6.12802e+148
1.67033e+149
4.46027e+149
1.16762e+150
2.9986e+150
7.55954e+150
1.87198e+151
1.32488e+111
1.99532e+113
1.4873e+115
7.31695e+116
2.67315e+118
7.73699e+119
1.84832e+121
3.74931e+122
6.59372e+123
1.02151e+125
1.41182e+126
1.75875e+127
1.99169e+128
2.06525e+129
1.97309e+130
1.74617e+131
1.4383e+132
1.1073e+133
7.99778e+133
5.43804e+134
3.49163e+135
2.12302e+136
1.22561e+137
6.7339e+137
3.52912e+138
1.76788e+139
8.48155e+139
3.90411e+140
1.72719e+141
7.35579e+141
3.02034e+142
1.19742e+143
4.58983e+143
1.70322e+144
6.12645e+144
2.13855e+145
7.25252e+145
2.39212e+146
7.68143e+146
2.40376e+147
7.3372e+147
2.18649e+148
6.36663e+148
1.81288e+149
5.05198e+149
1.37883e+150
3.68827e+150
9.67595e+150
2.49119e+151
6.2984e+151
1.32488e+111
2.04248e+113
1.5588e+115
7.85358e+116
2.939e+118
8.71522e+119
2.13354e+121
4.43583e+122
7.99713e+123
1.27028e+125
1.80036e+126
2.30021e+127
2.67195e+128
2.84231e+129
2.78602e+130
2.52988e+131
2.1383e+132
1.68933e+133
1.25218e+134
8.73764e+134
5.75752e+135
3.59263e+136
2.12836e+137
1.19998e+138
6.45297e+138
3.31663e+139
1.63239e+140
7.70777e+140
3.49741e+141
1.52748e+142
6.43089e+142
2.61371e+143
1.02689e+144
3.90511e+144
1.43918e+145
5.14609e+145
1.78733e+146
6.03608e+146
1.98413e+147
6.35432e+147
1.98451e+148
6.04931e+148
1.80133e+149
5.24406e+149
1.4937e+150
4.16582e+150
1.13839e+151
3.05017e+151
8.01839e+151
2.06942e+152
1.32488e+111
2.08965e+113
1.63198e+115
8.41583e+116
3.22421e+118
9.79002e+119
2.45455e+121
5.22747e+122
9.65544e+123
1.57156e+125
2.2827e+126
2.98937e+127
3.55973e+128
3.8823e+129
3.90188e+130
3.63328e+131
3.14928e+132
2.55166e+133
1.93981e+134
1.3883e+135
9.38265e+135
6.00481e+136
3.64855e+137
2.10969e+138
1.16346e+139
6.13204e+139
3.09465e+140
1.49813e+141
6.96872e+141
3.11968e+142
1.34609e+143
5.6061e+143
2.25661e+144
8.79054e+144
3.31794e+145
1.21483e+146
4.31955e+146
1.49312e+147
5.02247e+147
1.64561e+148
5.25682e+148
1.63865e+149
4.98859e+149
1.4844e+150
4.32057e+150
1.23102e+151
3.43586e+151
9.40028e+151
2.52271e+152
6.64482e+152
1.32488e+111
2.13681e+113
1.70685e+115
9.0043e+116
3.52969e+118
1.09684e+120
2.81486e+121
6.13731e+122
1.16074e+124
1.93481e+125
2.8785e+126
3.86159e+127
4.71117e+128
5.2647e+129
5.42221e+130
5.17438e+131
4.59683e+132
3.81755e+133
2.97479e+134
2.18237e+135
1.5119e+136
9.91866e+136
6.17764e+137
3.66148e+138
2.06969e+139
1.11802e+140
5.78246e+140
2.8686e+141
1.36725e+142
6.27092e+142
2.77181e+143
1.18239e+144
4.87415e+144
1.94416e+145
7.51246e+145
2.81546e+146
1.0245e+147
3.62341e+147
1.24682e+148
4.17818e+148
1.36478e+149
4.34916e+149
1.35327e+150
4.11474e+150
1.22354e+151
3.56062e+151
1.01479e+152
2.83439e+152
7.76356e+152
2.08665e+153
1.32488e+111
2.18398e+113
1.78339e+115
9.61959e+116
3.8564e+118
1.22576e+120
3.21822e+121
7.17974e+122
1.38965e+124
2.37093e+125
3.61091e+126